432
Lattice="26.892173767089844 0.0 0.0 15.54514217376709 23.15834617614746 0.0 14.459057807922363 8.309591293334961 20.966482162475586" Properties=species:S:1:pos:R:3:forces:R:3 virial="-116.19830572117911 -54.656241748368664 77.51977427677603 -54.656241748368664 -152.92396563336297 -46.94873540900554 77.51977427677603 -46.94873540900554 -124.72093930994508" Config_type="GT149" energy=-1679.84394532 free_energy=-1679.84394532 pbc="T T T"
Ge 29.72545624 30.88738823 20.92118454 0.1184002906 -0.06181579828 0.004887970164
Ge 34.04549789 30.94039726 20.84489822 0.3044528067 0.00903960038 0.241043061
Ge 24.29839897 22.5046978 0.02434376068 -0.1174433827 0.1525094956 -0.03220748156
Ge 28.68589783 22.56909752 0.01839745976 -0.06512728333 0.09825590998 0.1155120805
Ge 47.5881958 30.96159744 20.8640976 -0.08171702176 -0.1051835418 0.1667004377
Ge 37.63219833 22.58169746 0.007331979927 -0.02138168924 0.11367625 -0.05989180878
Ge 2.232429981 3.228519678 0.0701527968 -0.1409133077 0.1612057835 -0.1440441161
Ge 21.3069973 11.5983305 20.94831085 -0.1574253142 -0.04504166916 -0.1449240595
Ge 11.23399925 3.31532979 0.05842981115 0.05099619925 -0.06653870642 -0.1189583912
Ge 30.27745628 11.69625092 20.93249321 -0.2823989093 -0.3039865494 0.08909969777
Ge 20.18249893 3.355929852 0.01881700009 0.07819087803 -0.1928044856 0.09631471336
Ge 39.13185501 11.65341091 20.93558693 -0.1185675934 -0.3075099289 -0.03580452874
Ge 19.29499817 15.45589924 20.84549904 -0.1110381335 -0.116113171 0.3747208118
Ge 9.264219284 7.223259449 0.03104905039 0.2365183681 -0.2527887523 0.1771166325
Ge 13.67009926 7.221189499 0.04501944035 0.2482154965 0.1089894623 -0.1171681136
Ge 32.73845673 15.46939087 20.93444633 -0.05072081834 -0.07707905769 -0.01090504974
Ge 22.77759743 7.188159466 0.04094396904 0.003686890006 0.02677406929 -0.1686526984
Ge 41.73839569 15.40809917 20.85989761 -0.03154224157 -0.1544344127 0.007104089949
Ge 48.68725586 19.30809021 20.91551018 0.2076084465 -0.06378245354 -0.01120829023
Ge 26.49659729 19.39799881 20.88249779 -0.01377232 0.02621882036 -0.1356153786
Ge 16.35899925 11.03069878 0.07865408063 -0.09182793647 0.1179102808 -0.1079071984
Ge 21.05519867 11.05759907 0.02033057064 -0.358663708 -0.08645176888 -0.05012933165
Ge 39.93189621 19.167099 20.83909798 -0.3390070796 0.05382294953 0.1987672299
Ge 44.30639648 19.3253994 20.81969833 0.0416838415 -0.03556007892 0.1869488209
Ge 24.54299736 23.14969826 20.78439903 -0.08755102009 0.2206650525 0.0996221602
Ge 28.99105644 23.18659019 20.91624069 -0.2202533633 -0.08396182209 0.09307683259
Ge 33.55819702 23.23949814 20.80219841 -0.02334960923 -0.253436774 0.2323750556
Ge 37.86155701 23.08058929 20.93823814 0.1746922582 -0.05614082888 0.08090654761
Ge 27.96519852 14.93279934 0.04839755967 -0.02151590958 -0.1253242046 -0.01359825954
Ge 46.95785522 23.27379036 20.93358803 -0.1145261303 -0.1460918635 -0.03088431992
Ge 53.87065506 27.1090889 20.96080399 0.1605975479 -0.2552543283 0.08753600717
Ge 17.06299782 18.71559906 0.01519608963 0.1456758529 0.1545490474 -0.06480240077
Ge 36.16569519 27.20479774 20.89199829 -0.1622266769 -0.3588725626 0.09545397758
Ge 40.58469772 27.04609871 20.83299828 0.1632597595 -0.03208332136 0.188441366
Ge 45.06939697 27.16459846 20.8762989 -0.2499898225 -0.1820733249 0.1418203712
Ge 35.10269547 18.83379936 0.01941161044 0.01916115917 -0.3634974957 -0.09163081646
Ge 17.71229935 24.01029778 3.410269737 -0.05317033827 0.05936571956 0.0913227275
Ge 22.145998 24.03289795 3.570449829 -0.000799469999 -0.1237518713 -0.05611462146
Ge 26.59529877 24.04119873 3.460069656 -0.03380170092 -0.1767883152 -0.02364145033
Ge 30.98899841 23.8599987 3.409929752 0.1427529156 0.151005134 -0.1369599551
Ge 35.52949905 24.02429771 3.429569721 0.04259556904 -0.1068606004 0.02365525067
Ge 40.20029831 23.93739891 3.46481967 -0.3117799461 -0.1124623567 -0.2719161808
Ge 4.720349789 4.731559753 3.412959814 -0.2573949397 -0.1324561536 0.1479144394
Ge 9.130199432 4.788939953 3.465659857 -0.05478005111 -0.1788248867 0.05695527047
Ge 13.6823988 4.705749512 3.349989891 -0.121394299 -0.08349429071 0.2363150567
Ge 18.12189865 4.674019814 3.459849834 -0.08544898778 -0.08360610902 -0.01034497004
Ge 22.61389732 4.608339787 3.464499712 -0.2695850134 0.05451098084 0.05351985991
Ge 27.11669731 4.715229988 3.424259901 0.1002726927 -0.1050871313 0.1664701402
Ge 34.12159729 8.707069397 3.460869789 0.2007459104 -0.230659306 0.02140451968
Ge 11.5994997 8.648139954 3.373369694 0.4340851903 -0.2727390528 0.252309978
Ge 16.20549965 8.504569054 3.378869772 -0.1045544967 -0.1323478371 0.1660947055
Ge 20.62299919 8.54915905 3.55657959 -0.001989070093 0.01207953971 -0.1785438657
Ge 25.21719742 8.56607914 3.564099789 -0.0454877317 -0.1350517273 -0.05771975964
Ge 29.61859703 8.54006958 3.497629642 -0.186693117 -0.2495534569 -0.2664523721
Ge 9.905259132 12.41109848 3.425789833 -0.009724410251 0.1767840832 0.03529606014
Ge 14.28909874 12.36249924 3.34665966 -0.1371651143 0.1824948192 0.4224526584
Ge 18.76629829 12.30099869 3.433199644 0.03808170184 0.1421175599 -0.160215795
Ge 23.31139755 12.41999912 3.470559835 0.06517572701 -0.03951814026 -0.1405696273
Ge 27.67829704 12.40839958 3.467869997 0.1294915825 -0.03484166041 -0.1854067892
Ge 32.23939896 12.49459934 3.429549932 -0.06590206921 -0.1605640203 -0.04701624066
Ge 12.46002293 16.32789803 3.509459734 -0.2410982251 -0.2017018348 -0.05261963978
Ge 16.98819923 16.32699966 3.542069912 -0.1264284253 -0.2103794962 -0.3755553961
Ge 21.49949837 16.36059952 3.285449743 -0.2148632556 -0.2052742392 0.1344529837
Ge 25.86329842 16.31149864 3.496929884 0.03306626901 -0.1139162481 -0.2126891017
Ge 30.35949707 16.26839828 3.601709843 -0.02643110044 -0.06639748067 -0.3684497774
Ge 34.87719727 16.16569901 3.440579653 -0.01684016921 0.185142085 -0.1259715408
Ge 15.20259857 20.08819771 3.408039808 -0.257912457 0.1227695495 -0.1910446882
Ge 19.70869827 19.98589897 3.521489859 -0.1646683663 0.3166203797 -0.1817135662
Ge 24.11639786 20.14619827 3.497239828 -0.1597728729 0.0099363802 -0.1802904457
Ge 28.53359795 20.05989838 3.388789654 -0.0233969707 0.2229882479 0.2440994829
Ge 33.07309723 20.09269905 3.41106987 -0.1818391532 -0.07890514284 0.05410337821
Ge 37.43119812 20.23199844 3.407549858 -0.05458554998 -0.2138996571 -0.06871695071
Ge 46.83379745 25.292099 7.007059574 0.1804311126 0.1600686759 -0.04942689836
Ge 24.62539864 25.4000988 7.04545927 -0.2293498665 0.1679822356 -0.1731723249
Ge 29.14449692 25.46149826 6.927769184 -0.1898881793 -0.1905324161 -0.0621558018
Ge 33.52049637 25.30189896 6.973049641 -0.2327738106 0.06123473868 -0.2711224258
Ge 38.05593872 25.50539589 7.021199226 -0.09977629036 -0.2588278055 -0.1591805667
Ge 42.4007988 25.43509865 6.852099895 0.1902152002 -0.2381789833 0.1075493172
Ge 7.081439495 6.10199976 6.906399727 -0.03294973075 0.151879251 0.02114960924
Ge 11.42359924 6.001049519 7.01295948 0.3324515522 0.4749721885 -0.0008885400021
Ge 15.95599842 5.979209423 6.874059677 0.1016498581 -0.01522598974 0.009153909981
Ge 20.43799782 6.009229183 6.958469391 -0.02035799064 -0.07285539061 0.1257501543
Ge 25.03949738 6.120909214 6.99671936 -0.2812944651 -0.2265530229 -0.1068176404
Ge 29.65569878 5.94326973 7.10615921 -0.4173285365 -0.009284909815 -0.31899032
Ge 9.679558754 9.922849655 7.008259296 0.0310290698 -0.01822400093 -0.1070852131
Ge 14.3083992 9.916949272 6.8761096 -0.37138623 -0.223837927 0.06471057981
Ge 18.53589821 9.941429138 6.920659542 -0.1538332552 -0.2661704123 0.1137655601
Ge 22.98679924 10.00399971 6.90874958 0.1848825514 -0.1038169116 0.3066386282
Ge 27.60329819 9.892569542 7.024839401 -0.08536844701 -0.04708550125 -0.2600487173
Ge 31.9428978 10.00299931 6.979399204 0.1062494665 -0.09884030372 -0.05498522148
Ge 12.29099846 13.76439857 7.017599583 -0.07933445275 -0.04211543873 -0.2112371922
Ge 16.7519989 13.74679852 6.840689659 -0.3131620288 -0.0307495892 -0.03259338066
Ge 21.23259735 13.8283987 6.899549484 -0.02577391081 0.01426891983 0.06872113794
Ge 25.72469711 13.83369923 7.050519466 -0.2105847299 -0.2048303336 -0.230883047
Ge 30.16129684 13.80539894 6.926439762 -0.001757379971 -0.06787505746 -0.1363384277
Ge 34.7696991 13.65849876 7.049609184 -0.1313506663 0.2542304695 -0.2636955678
Ge 14.82509899 17.66019821 6.913779259 0.05025431886 -0.2622851729 0.06134692952
Ge 19.2553978 17.61759949 6.904209614 0.2045035362 -0.06650309265 0.01612059958
Ge 23.93969727 17.52399826 6.937279701 -0.1936419457 0.1047563776 0.001546620042
Ge 28.37439728 17.77699852 6.967409611 -0.2569744289 -0.249544546 -0.191722393
Ge 32.78779602 17.57699776 6.957679272 -0.175064519 0.08583328873 -0.1231008172
Ge 37.34939575 17.60749817 6.881759644 -0.1229420826 0.1867566258 0.2301117331
Ge 17.50589943 21.47679901 6.950119495 -0.09930931777 0.07770991325 0.0072128498
Ge 21.92049789 21.45909882 6.937289238 -0.04196228832 0.1122589707 0.1144118607
Ge 26.46219826 21.58619881 7.076849461 0.01228205021 -0.1755644828 -0.3838182092
Ge 30.92629814 21.61799812 6.926869392 -0.2833321691 -0.190710634 -0.05409635976
Ge 35.43369675 21.49699783 6.741339684 -0.0886567682 0.006459149998 0.1197830513
Ge 39.86359787 21.53659821 6.902039528 -0.1232449487 0.1527055502 0.03999276832
Ge 22.44549751 26.71039772 10.47329903 0.03280806914 0.1772617847 0.1112319082
Ge 27.03039742 26.75819778 10.49909878 -0.2713175416 0.00761975022 -0.1808968782
Ge 31.44439697 26.76449776 10.49949932 -0.06415174901 -0.03953798115 -0.2983605862
Ge 35.81389618 26.65489769 10.49079895 0.06116643175 0.2735390961 -0.09353624284
Ge 40.30879593 26.66259766 10.49979877 0.00323047 0.1550581008 0.06885576993
Ge 44.85719681 26.72939873 10.42899895 -0.0778683871 0.006556270178 0.2094220221
Ge 36.37879562 7.507599354 10.53839874 -0.04472370818 -0.1090164185 -0.2357617021
Ge 13.9309988 7.379159451 10.48939896 0.1497146934 0.07624527812 -0.1920640171
Ge 18.38329887 7.475939274 10.48169899 0.07389938086 -0.178461194 -0.1026226431
Ge 22.85969734 7.43598938 10.355299 -0.09428144991 -0.0008381099906 0.1342637539
Ge 27.3599987 7.506399632 10.42759895 0.09412760288 0.001201180043 0.0979161635
Ge 31.95279694 7.555589676 10.49579906 -0.2553880811 -0.05978422984 -0.09010774642
Ge 12.13669872 11.3005991 10.3453989 -0.1944166571 -0.3104717731 0.1895464361
Ge 16.53919983 11.40589905 10.4934988 -0.1835949272 -0.2551479042 -0.05423896015
Ge 20.88059807 11.28129959 10.34999943 0.16907987 0.2313502282 0.3225364387
Ge 25.48109818 11.38019943 10.37619877 0.247851938 0.07178995013 0.1950974464
Ge 29.91119766 11.40369892 10.53549957 0.2351061255 -0.206908837 -0.1193678603
Ge 34.42729568 11.35049915 10.42549896 0.2257362157 -0.1468122005 -0.002849939978
Ge 14.71009922 15.16439915 10.46819878 -0.1946141869 0.2183032632 -0.03073387966
Ge 19.05869865 15.24449921 10.40589905 0.1989814639 -0.08564136922 0.06602133065
Ge 23.5569973 15.17939854 10.40829945 -0.009843870066 0.0105357198 0.1055179015
Ge 28.16059875 15.21179867 10.47189903 -0.06015276164 -0.1357596517 -0.1607405245
Ge 32.6955986 15.22729874 10.38979912 -0.2268956453 -0.1335911155 0.270033896
Ge 36.96769714 15.30809879 10.48989868 0.3265711665 -0.1445919424 -0.2451794446
Ge 17.36299896 19.06939888 10.38249874 -0.1748229712 -0.06378760189 0.229995504
Ge 21.78639793 19.17099762 10.58769894 -0.08330135047 -0.1699164659 -0.3684099615
Ge 26.27679825 19.05369949 10.39529896 -0.1833266467 -0.1185247004 0.005457850173
Ge 30.7315979 19.06229782 10.36909962 -0.003598259995 -0.1379012913 0.1625425071
Ge 35.25019836 19.17979813 10.35719872 -0.1938610226 -0.04768577963 0.250862211
Ge 39.65739822 19.07369804 10.47569942 -0.1576545984 -0.09627185017 -0.1962426752
Ge 19.92969894 22.93819809 10.37589931 -0.2218381912 -0.04536622018 0.2686332166
Ge 24.43979836 22.89269829 10.48019886 -0.0608176887 -0.08551456779 -0.01884203032
Ge 28.77479744 22.90229797 10.34229946 -0.02869015932 -0.2316770703 0.1827648729
Ge 33.3809967 22.81999779 10.33809948 -0.07937534899 0.3594276905 0.07604333013
Ge 37.70949554 22.99419785 10.43959904 0.2424164414 -0.1326044351 -0.0747782588
Ge 42.3640976 22.82359886 10.42899895 -0.1090932488 0.3475663364 0.0812080726
Ge 51.7756958 28.20279694 14.08189869 0.09645722061 -0.09410311282 -0.2408366352
Ge 29.30749893 28.03579903 13.89629936 0.4583031237 0.2053576559 0.002688880078
Ge 33.89439774 27.99509811 14.09989929 0.1413214505 0.4440918863 -0.1486769766
Ge 38.43079758 28.21859741 14.00169945 -0.310144037 0.03844046965 -0.1499126554
Ge 42.7130394 28.2771759 13.93589878 0.02503523976 -0.1026420891 0.02335344069
Ge 47.20839691 28.20659828 13.94719887 -0.0297228992 0.05329139158 -0.005059590098
Ge 11.95759869 8.807108879 13.97529888 -0.1298366785 0.1041451991 0.1148044318
Ge 16.38439941 8.760229111 13.86299896 0.007366150152 0.1001164094 0.2935281396
Ge 20.92709732 8.961628914 13.91569901 -0.09830053896 -0.183286652 -0.111436747
Ge 25.32799911 8.870269775 13.87879848 0.1319994032 0.007580730133 0.2149600089
Ge 29.89989853 8.872379303 14.01519871 -0.2035869658 0.2629363239 0.01659194008
Ge 34.41029739 8.869309425 13.86079884 -0.0597316213 0.0308883097 0.1261928976
Ge 14.44262314 12.72639942 13.89189911 -0.1223617569 -0.2474283427 0.1784166545
Ge 18.86299896 12.64239883 13.89449883 -0.02657118067 0.077897802 0.2805218399
Ge 23.38829803 12.76349926 13.76439857 -0.007264379878 0.1426872015 0.5395624042
Ge 27.86119843 12.75429916 13.98689938 0.06427060068 0.09317004681 0.01961187087
Ge 32.33549881 12.66659927 14.07039928 -0.01111561991 0.1530183703 -0.1029398665
Ge 36.85849762 12.62339878 13.98149872 0.08431471884 -0.1192008182 -0.1107138693
Ge 43.92339706 16.59679794 13.96359921 -0.205662474 -0.103692092 0.07675845921
Ge 21.5936985 16.52219772 14.02669907 -0.2813076377 -0.008713070303 -0.1056640819
Ge 25.98809814 16.68379784 13.93439865 0.007239060011 -0.08335670084 0.06665354967
Ge 30.45069695 16.54129791 13.96099854 0.1989834309 0.1001140624 -0.01996633038
Ge 34.9937973 16.58849907 13.90509892 -0.03873609006 -0.07067242265 -0.257976979
Ge 39.49769592 16.55739784 13.95009899 -0.1247131303 -0.1201670468 -0.07808341831
Ge 19.83139801 20.40099907 13.95439911 -0.3533955514 0.02257896028 0.1166865081
Ge 24.12579918 20.36919785 13.85089874 0.07747297734 0.05526762828 0.2555540204
Ge 28.81429863 20.37859917 13.8613987 -0.2854734063 -0.09855303168 0.2716152072
Ge 33.15499878 20.4571991 13.9180994 -0.2960570157 -0.3233011067 0.07361871749
Ge 37.59489822 20.4136982 13.81549931 0.02161302976 -0.0143799996 0.01122932043
Ge 42.09289551 20.48259926 13.89309883 -0.1224906668 -0.01955104992 0.1445625424
Ge 49.08499527 24.38549805 13.98509884 -0.01332657039 -0.3402894437 -0.01295187045
Ge 26.78229904 24.3497982 13.90429878 -0.2104876041 -0.3178157508 0.0290559791
Ge 31.29639816 24.25189781 13.92019939 -0.0152376201 -0.02680476941 0.04184868932
Ge 35.74869537 24.12679863 13.95859909 -0.2230591476 0.259188205 0.02826079912
Ge 40.19359589 24.34739876 13.93589878 -0.000425389997 0.1024785787 0.1896158457
Ge 44.68299484 24.30649757 13.89579868 -0.1352698654 0.04975153878 0.04961898923
Ge 27.34859848 29.49319839 17.45839882 -0.03132611886 0.1660714149 0.0757741183
Ge 31.74739838 29.52469826 17.46979904 0.09514267743 0.007413799874 0.03719722852
Ge 36.22774124 29.67347717 17.42029953 0.04195784032 -0.1517492533 0.1244080365
Ge 40.73469543 29.60099792 17.45709801 -0.1295682788 -0.09564960003 -0.06756263226
Ge 45.24214172 29.65268707 17.39269829 -0.1558347493 -0.07867328823 0.2010790855
Ge 49.62249756 29.53539848 17.39169884 0.275316149 0.2032630146 0.1056101769
Ge 14.31809902 10.28309917 17.35919952 -0.1770524532 -0.1858992428 0.2899403572
Ge 18.80539894 10.09699917 17.4856987 -0.1576363444 0.2277525067 0.03136850893
Ge 23.26869774 10.33559895 17.40049934 -0.05803181976 -0.1293897331 -0.02767089941
Ge 27.67359734 10.26869965 17.48439789 0.2347441167 0.02952823043 -0.08745589852
Ge 32.31399918 10.22539902 17.39919853 -0.3795692921 0.01594699919 0.197554633
Ge 36.72199631 10.25049877 17.47859955 0.06804169714 -0.1173959002 0.1501429379
Ge 43.72349548 14.0821991 17.55979919 -0.04514274001 -0.2649465501 -0.06505212933
Ge 21.35469818 14.15139866 17.3898983 -0.02982440963 -0.2835927904 0.2140993774
Ge 25.74029732 14.07329941 17.55139923 0.1913002729 0.04843905941 -0.2855060101
Ge 30.27729797 14.24529934 17.54429817 0.3155867159 -0.1260981411 -0.1390680671
Ge 34.87879562 14.15739918 17.39589882 -0.1309405863 -0.2448262274 0.07756461948
Ge 39.15459824 13.92029858 17.3613987 0.074913688 0.2697662413 0.07522349805
Ge 19.50589943 17.7981987 17.64249802 0.007260759827 0.241723612 -0.4632942677
Ge 23.87879753 17.98869896 17.49829865 0.158894673 -0.2604117393 -0.03737071902
Ge 28.4034977 17.97229958 17.41489792 0.07512357831 0.1340866685 0.0141817797
Ge 32.87569809 17.83089828 17.51069832 -0.0765228495 0.3996212184 -0.09349129349
Ge 37.52259827 17.87919807 17.36909866 -0.1921241581 0.01919741929 -0.03428535908
Ge 41.8850975 18.03639793 17.31209946 -0.1568917483 -0.2416594326 0.09464318305
Ge 22.02229881 21.76679802 17.39069939 -0.02528662048 0.04184383154 0.08376117051
Ge 26.48139763 21.92269897 17.35179901 0.1847865731 -0.2237017453 0.03763173148
Ge 31.00349808 21.88199806 17.53319931 0.0245993603 -0.3305681348 -0.3041963577
Ge 35.67489624 21.7512989 17.3864994 -0.3096018434 0.05361713096 0.1453211457
Ge 40.07689667 21.77149773 17.45829964 -0.2863584161 -0.06554354727 -0.08640562743
Ge 44.57709503 21.82639885 17.4183979 -0.2286725193 -0.106628038 -0.0283581093
Ge 51.5915947 25.76749802 17.50849915 -0.005471949931 -0.241996482 -0.1781132221
Ge 29.22059822 25.66789818 17.47149849 -0.1252110153 -0.2715982497 -0.08239022642
Ge 33.7593956 25.63749886 17.46009827 -0.1080897376 0.02055157907 -0.1151094884
Ge 38.29839706 25.65939903 17.45119858 -0.1692008972 0.1820629388 0.08289361745
Ge 42.67649841 25.73129845 17.37909889 0.03398647904 -0.07855988294 0.03721475974
Ge 47.02989578 25.76639748 17.40049934 -0.03279493004 -0.2651018798 0.04907120019
Te 4.853309631 2.401739597 1.838219762 -0.06795342267 -0.03145825863 -0.1158167794
Te 9.210048676 2.386239529 1.765749693 0.001454510028 0.08695419878 0.2092178166
Te 13.6283989 2.343559742 1.790179849 0.3353329599 0.1734568179 -0.1275546849
Te 18.17509842 2.319299698 1.833819866 0.01338523999 0.2651801109 -0.2112908661
Te 22.67919731 2.343449831 1.807209849 0.2250062525 0.0149720097 0.04117523134
Te 27.07719803 2.377949715 1.821269751 0.1895941496 -0.08615967631 -0.04889129847
Te 7.301379204 6.252149105 1.861279726 -0.01249357034 0.1295373291 -0.05150974914
Te 11.74189949 6.208959579 1.768679738 -0.103532441 0.05980226025 0.1409546286
Te 16.2852993 6.134699345 1.749689817 0.02894859947 0.1902204901 0.06253530085
Te 20.75819778 6.313629627 1.803659797 0.07423484325 -0.2285159677 0.1213389635
Te 25.39129829 6.179149628 1.777899742 -0.4103668034 0.2965079844 0.0544693917
Te 29.60579681 6.133279324 1.707999825 0.3702279627 0.3357052505 0.2084010839
Te 10.03699875 10.20129967 1.689179897 -0.477044791 -0.04339012876 -0.03214574978
Te 14.25639915 10.06129932 1.809699893 0.3139908314 -0.2231930643 -0.182816416
Te 18.8368988 10.03619957 1.755979776 0.2829654217 0.06691271812 0.03020367026
Te 23.35569763 10.04949951 1.870359898 0.3190718293 0.04737395048 -0.2437293231
Te 27.83359718 10.12969971 1.625589848 0.07941699028 -0.08946660906 0.4470015168
Te 32.31709671 10.09499931 1.76309979 -0.2106176019 0.2453761846 0.02913922071
Te 12.47099876 13.9649992 1.823329687 0.1347764879 0.1949621886 -0.1728905141
Te 17.14459801 13.98719883 1.740469813 -0.1274862736 0.1584402025 0.06115964055
Te 21.38559914 13.91309929 1.786619782 0.2235277891 0.1123403236 -0.03472860903
Te 25.9238987 13.94469929 1.79957974 0.05375730991 0.238164857 0.009688629769
Te 30.45219803 14.00839901 1.704979777 0.1599315107 0.07262217253 0.3348053694
Te 34.9326973 13.9764986 1.639369845 0.1243861169 -0.252353102 0.2656461895
Te 15.09829807 17.76469803 1.780719757 0.09192623943 -0.04090783 0.1200113967
Te 19.57859802 17.80979919 1.748589873 0.3716039658 0.05378196016 -0.1062728092
Te 24.09449768 17.88019943 1.723389864 0.08422952145 -0.1005062163 0.2607905567
Te 28.58209801 17.83779907 1.769259691 0.2332711816 -0.2021090388 -0.1552251428
Te 33.08429718 17.76189804 1.738989711 0.03700397909 0.1122054532 0.04732732102
Te 37.45899582 17.81959915 1.810959697 0.1529574692 0.171060577 0.04212320969
Te 17.81839752 21.69319916 1.856169701 -0.05534813926 -0.2499804646 -0.08437793702
Te 22.27159882 21.69309807 1.857589841 -0.04665777087 0.03749674186 -0.005325510167
Te 26.61469841 21.61219788 1.832719803 0.1451307535 0.2603473365 -0.01108978037
Te 31.15779686 21.51339912 1.762579799 0.06958097219 0.260191977 -0.1011794806
Te 35.53949738 21.68589783 1.750939846 0.2469296008 -0.08496341854 0.1283595264
Te 40.16449738 21.56699753 1.650779724 -0.02355680056 0.1790564358 0.5234071612
Te 7.086219311 3.838239431 5.255229473 0.2713248432 -0.1826050133 0.03176553175
Te 11.73769855 3.820669413 5.373159409 -0.1303491741 -0.259960711 -0.4736630321
Te 16.06389809 3.677329779 5.169779778 0.1408861727 0.05453307927 0.2675491571
Te 20.55349922 3.670259476 5.358669758 0.1336185485 0.2385057956 -0.2880503237
Te 25.06069756 3.710949421 5.253939629 -0.0662977621 0.3986186683 7.942999946e-05
Te 29.55689812 3.616379738 5.307889462 0.2034377754 0.4003942013 0.07837291062
Te 9.707279205 7.677769661 5.235869408 -0.06908120215 -0.1380887032 0.1337308139
Te 14.21509933 7.573059559 5.247209549 0.08860910684 0.1899685264 -0.07670467347
Te 18.61089897 7.524579048 5.294129372 -0.02450847067 0.2028160393 0.06378427148
Te 23.12909889 7.677669525 5.327269554 0.2478448004 -0.2185673416 -0.009089889936
Te 27.66089821 7.545179367 5.29750967 0.1598904133 0.1897986829 0.1822749227
Te 32.16349792 7.74448967 5.187739849 -0.1220128164 -0.0872958228 0.2896596789
Te 12.33679867 11.42399883 5.319649696 0.06063944846 0.2245061994 -0.2177678645
Te 16.71479797 11.39219952 5.188549519 -0.008321380243 0.1556260139 0.2085915655
Te 21.33329773 11.48629951 5.235619545 -0.3273638189 0.1260038018 0.01395414956
Te 25.75369835 11.4710989 5.273429394 -0.005273759831 -0.01118407957 0.2234901935
Te 30.209198 11.48599911 5.215739727 0.09949888289 0.1088391691 0.04882409051
Te 34.8143959 11.47809887 5.289859772 -0.09738790989 -0.06864961982 -0.07758115232
Te 14.87889862 15.30849838 5.122109413 0.2483068258 0.08273234963 0.4754973054
Te 19.46239853 15.33889866 5.187979698 0.0006484700134 0.1214692369 0.1057214588
Te 23.90069771 15.24759865 5.23102951 0.02875108086 0.07525213808 0.1997958571
Te 28.29719734 15.32109833 5.277989388 0.1807740331 0.1056148931 0.1414711624
Te 32.86049652 15.28729916 5.224669456 0.04159234092 -0.07274015248 0.2496546805
Te 37.30169678 15.30019855 5.374359608 0.2192486525 -0.02817003988 -0.3335680366
Te 17.53169823 19.21669769 5.204499722 0.1170586273 -0.1949376315 0.2152595818
Te 22.08679771 19.18199921 5.319419861 -0.04743381962 -0.1015779898 -0.07798668742
Te 26.53069878 19.21029854 5.256639481 0.1326575726 0.08531398326 0.239606306
Te 31.01399803 19.28649902 5.298769474 0.1211197674 -0.1262266338 -0.0542117618
Te 35.48079681 19.1337986 5.184559345 0.03168734163 0.1489883959 0.05667411163
Te 40.08869553 19.21299934 5.248449802 -0.3852117658 0.1158273816 -0.1183410734
Te 20.08329773 23.03639793 5.328009605 0.07172060758 -0.09180431068 -0.1063069776
Te 24.65289879 23.12979889 5.36000967 -0.06014956906 -0.04067597911 -0.06040344015
Te 29.04139709 23.07349777 5.210809708 0.04919341952 0.01586191915 0.3443528414
Te 33.48639679 23.04059792 5.143699646 0.1193091199 -0.0002967799956 0.337993443
Te 38.0868988 23.1629982 5.210939407 0.2466203868 -0.1637200862 0.3145971
Te 42.62699509 23.03209877 5.19258976 -0.1371685266 0.1419779062 0.2366363257
Te 9.531959534 5.093419552 8.814489365 -0.1391128153 0.06951572746 0.2180781215
Te 13.9941988 5.063589573 8.75071907 0.05211507902 0.07297764719 0.1336596161
Te 18.43719864 5.082689285 8.812389374 0.1539292186 0.1276971549 0.01527122967
Te 23.00019836 5.055259705 8.78456974 -0.01121584978 0.2749839425 -0.1515989304
Te 27.52669716 5.127859592 8.851379395 -0.02484620921 0.0829199031 -0.2737325728
Te 31.99259758 5.21407938 8.763869286 0.08836737275 -0.05422779173 0.1907048821
Te 12.16439915 8.951259613 8.752189636 0.2327388972 0.1993459761 0.04145209119
Te 16.5026989 9.063919067 8.820999146 0.404440552 0.03663887829 -0.04583436996
Te 20.93259811 9.053789139 8.752129555 0.2185205966 -0.309045881 -0.2301841974
Te 25.56409836 9.052939415 8.796989441 -0.01492273994 -0.1811684519 -0.1610054672
Te 29.99559784 8.972088814 8.809069633 0.2104682922 0.1361487806 0.1181906909
Te 34.54069901 8.969249725 8.74379921 0.02791230939 0.08847980946 0.2685294747
Te 14.66959858 12.93039894 8.805788994 0.2581745088 -0.1939995587 -0.1659850031
Te 19.19639778 12.91459942 8.753379822 -0.1061528996 0.002053440083 -0.2003196627
Te 23.62589836 12.83979893 8.787679672 0.06967633218 0.1035477668 -0.1601048112
Te 28.23319817 12.7988987 8.724509239 -0.202092126 0.2778159082 0.1839103699
Te 32.67089844 12.85139942 8.768109322 -0.04135784879 0.02025895007 -0.02566983923
Te 37.18109894 12.84879875 8.758449554 -0.06793995947 0.1276466995 0.1810287535
Te 17.28199768 16.73479843 8.777209282 -0.009989280254 0.005610059947 -0.1683038473
Te 21.87669945 16.73839951 8.744628906 -0.08923362195 0.1808746904 0.05267960951
Te 26.31799889 16.71959877 8.678939819 0.2394208759 0.0799767226 0.2508107424
Te 30.76169777 16.68649864 8.813519478 0.1888290793 0.03283790872 -0.2054578811
Te 35.23879623 16.90969849 8.770829201 0.180259496 -0.4085194468 -0.164056927
Te 39.71079636 16.75739861 8.761779785 0.1730995625 0.09917843342 0.04983510077
Te 19.86829758 20.60399818 8.828139305 0.2163619399 -0.09259761125 -0.1617878973
Te 24.47149849 20.56819916 8.744949341 -0.09651883692 0.1511036754 0.1728921831
Te 28.79239845 20.50169754 8.725049019 0.3223575354 0.2977097631 -0.04042388871
Te 33.43719864 20.63329887 8.647629738 -0.02556530945 -0.1901034862 -0.1301334649
Te 37.80099869 20.69399834 8.759299278 0.2248727083 -0.1296644509 -0.004771410022
Te 42.38179779 20.56079865 8.816179276 -0.06423746794 -0.04704874009 -0.3101429045
Te 22.604599 24.46829796 8.848649025 -0.03786829114 -0.1994137466 -0.1054923311
Te 27.00529861 24.48009872 8.700199127 0.1753251404 0.01162073016 0.1446833462
Te 31.4781971 24.44179726 8.742329597 0.1816990227 0.01722848043 0.1787468046
Te 35.98429871 24.42099762 8.719329834 -0.1353621334 0.1431235969 0.04360048845
Te 40.43109512 24.48269844 8.738769531 0.1954286844 -0.3252007067 0.09496825188
Te 44.87649536 24.37949753 8.832809448 -0.103800647 0.02971223928 -0.06570520997
Te 12.00889874 6.491259575 12.33889961 -0.2553525865 -0.1085415632 -0.1733549833
Te 16.50069809 6.450749397 12.31649876 -0.1122403294 -0.08493767679 -0.08782867342
Te 20.93509865 6.594349384 12.25819874 0.1197701022 0.06509123743 0.02433237061
Te 25.34689713 6.552999496 12.23699951 -0.0483901985 0.08194010705 -0.1075258106
Te 29.85719872 6.676699638 12.31499958 0.2404751629 -0.3009224534 -0.1355453581
Te 34.44839859 6.488289356 12.3630991 -0.09639675915 0.1351583302 -0.1764608622
Te 14.56059933 10.32089901 12.3100996 -0.04718020186 0.3080171645 -0.1969158947
Te 18.89259911 10.39449883 12.23329926 0.1679143906 -0.1684559137 0.01310443971
Te 23.62779808 10.44719887 12.29509926 -0.4192821681 -0.2165059447 -0.408069402
Te 27.99299812 10.46879959 12.32319927 -0.04149600118 -0.1602302492 0.06099445
Te 32.53629684 10.39669895 12.26769924 -0.168375805 -0.09697058052 0.114761807
Te 36.89499664 10.24839878 12.38019943 0.280898869 0.2384072989 -0.3237446845
Te 17.10599899 14.25589943 12.22339916 -0.08483713865 0.05960458145 0.1668071747
Te 21.52009773 14.28219891 12.21819878 0.1258448213 0.00195934996 0.07733079046
Te 26.13629913 14.36539936 12.24649906 -0.01746671088 -0.162521258 0.1074565127
Te 30.60239792 14.24319935 12.30329895 0.1535302699 -0.03703866899 -0.1767244339
Te 35.14639664 14.17109871 12.20489883 -0.3898396492 0.2460439652 0.2590234876
Te 39.54979706 14.25889874 12.24059868 0.04178892076 0.06586890668 0.03738069907
Te 19.77659798 18.18139839 12.22969913 0.09635710716 -0.2158945799 0.245870918
Te 24.13909721 18.08089828 12.22239876 0.2585051954 -0.001491880044 -0.073483482
Te 28.74199867 18.07599831 12.17929935 0.075094603 0.002624500077 0.07363033295
Te 33.14839935 18.11949921 12.1493988 0.2800876796 0.24164024 0.1564434469
Te 37.62359619 18.04719925 12.23089886 0.1776733994 0.1059288979 -0.01384432986
Te 42.12169647 18.16449928 12.28309917 0.2114913166 -0.003331080079 -0.0892785117
Te 22.36929893 21.94659805 12.22689915 -0.03977448121 0.1930551082 0.09671638906
Te 26.91619873 21.86479759 12.28989887 -0.1336290687 0.4840138853 -0.1573468149
Te 31.40559769 21.98249817 12.2040987 -0.1730389148 -0.07383094728 0.03347976878
Te 35.71269608 21.95929909 12.1616993 0.04594014958 -0.1307934672 0.1882781535
Te 40.27939606 22.11449814 12.28069878 0.1090062633 -0.4077221155 -0.1007827297
Te 44.8055954 21.96169853 12.33359909 0.03436389938 0.08825805783 -0.240320906
Te 24.9312973 25.88299751 12.22919941 0.1178866774 0.02237278037 0.2278190851
Te 29.42329788 25.76519775 12.21169949 -0.08561179042 -0.09894239902 0.08712712675
Te 33.88989639 25.81129837 12.38229942 -0.02201971039 -0.3242203891 -0.1373449564
Te 38.28329849 25.85299873 12.38289928 0.1686238796 -0.001173619996 -0.1730200052
Te 42.77849579 25.98319817 12.2665987 0.2622878551 -0.2773471773 0.05047493055
Te 47.29369736 25.84229851 12.34409904 0.008137689903 0.08171381801 -0.1901735365
Te 14.38559914 7.925239086 15.84269905 0.102769807 -0.1287260205 -0.2741520703
Te 18.93349838 7.934589386 15.67209911 -0.08122967184 0.003609860083 0.123631157
Te 23.32359886 7.986169338 15.72499847 0.04931353033 0.03147846088 0.09361945093
Te 27.85079765 7.950829506 15.81529903 -0.01261570025 0.06843613833 -0.1004855037
Te 32.30789566 7.91642952 15.7526989 0.0120980097 0.02561376989 -0.04570160061
Te 36.87939835 7.90268898 15.8307991 -0.08138661087 -0.0403415896 -0.08188369125
Te 16.91929817 11.74539948 15.88719845 0.157302767 0.05872147158 -0.1888808757